10
 energy: -13.530613477879 gnorm: 0.056440092809 xtb: 6.6.0 (2ccbbd7)
C           -1.29657600000000        0.16346500000000       -0.02062000000000
C            0.02018100000000       -0.45447600000000       -0.37818900000000
C            1.28588900000000        0.07718400000000        0.22087400000000
O            0.06185700000000       -1.39298500000000       -1.15916200000000
H           -1.29573900000000        1.23572200000000       -0.30784900000000
H           -1.46357300000000        0.07875500000000        1.07353300000000
H           -2.12764000000000       -0.34898800000000       -0.55079400000000
H            1.40921500000000        1.14534700000000       -0.05490500000000
H            2.16500300000000       -0.49240900000000       -0.14937200000000
H            1.24138200000000       -0.01161400000000        1.32648200000000
10
 energy: -13.533735760881 gnorm: 0.019641109343 xtb: 6.6.0 (2ccbbd7)
C           -1.27665079698159        0.16431748594776       -0.01748540321025
C            0.02150948618849       -0.48438706609137       -0.40307944280219
C            1.26582921399172        0.07937251081894        0.22026967353595
O            0.06283062720744       -1.41491433522878       -1.17741051843844
H           -1.27352711633320        1.22351706279803       -0.28594045073903
H           -1.43719438490512        0.09527645864804        1.06114345520496
H           -2.10089955642910       -0.33145801220186       -0.53286278034585
H            1.38257189592139        1.13477481470278       -0.03756483170626
H            2.13662380996269       -0.47303778305169       -0.13659567431577
H            1.21890582137730        0.00653986365816        1.30952397281688
10
 energy: -13.534106211953 gnorm: 0.003258294461 xtb: 6.6.0 (2ccbbd7)
C           -1.26918934327883        0.16419376607025       -0.01668258620040
C            0.02220053024821       -0.49994796218282       -0.41602827433667
C            1.25835671476656        0.07974772572968        0.21967600324764
O            0.06328423066221       -1.42513224602712       -1.18591342329998
H           -1.24519588662295        1.21851361922023       -0.28109424473618
H           -1.40807139472105        0.09573363221414        1.05947010998401
H           -2.10322661701709       -0.31600892087655       -0.52020619956106
H            1.35356551311585        1.13168716215228       -0.03808039812523
H            2.13758375344775       -0.45769846161970       -0.12363174665856
H            1.19069149939934        0.00891268531959        1.30248875968643
10
 energy: -13.534139276076 gnorm: 0.000554901022 xtb: 6.6.0 (2ccbbd7)
C           -1.26740318040774        0.16428189080719       -0.01639177539309
C            0.02244409891593       -0.50543232434120       -0.42059222712896
C            1.25655742188491        0.07995562864242        0.21963151488701
O            0.06349987080381       -1.42998897891293       -1.18995501529084
H           -1.23504200786301        1.21844807314331       -0.28171429364069
H           -1.39817204514318        0.09391238073538        1.06094632434585
H           -2.10800831652243       -0.30961727444304       -0.51543378397507
H            1.34372045818700        1.13228975021865       -0.04057070298668
H            2.14181120235581       -0.45160781221715       -0.11801678153675
H            1.18059149778890        0.00775966636736        1.30209474071920
10
 energy: -13.534140148156 gnorm: 0.000226509848 xtb: 6.6.0 (2ccbbd7)
C           -1.26735912888259        0.16437146211446       -0.01631137774697
C            0.02249159408950       -0.50650230445616       -0.42148237543509
C            1.25650525993586        0.08004842196466        0.21970290039277
O            0.06354564175131       -1.43101974736249       -1.19081282076522
H           -1.23336393664453        1.21854769605527       -0.28258061363161
H           -1.39665743491224        0.09288591739431        1.06142435976141
H           -2.10994138095090       -0.30777476152080       -0.51412560875775
H            1.34224222414967        1.13249478098613       -0.04173233013254
H            2.14358617296512       -0.44988923245426       -0.11636175750913
H            1.17894998849880        0.00683876727889        1.30227762382412
