13
 energy: -13.918438434004 gnorm: 0.052816211925 xtb: 6.6.0 (2ccbbd7)
C           -0.43133800000000       -1.15655500000000       -0.46698000000000
C            0.25818300000000       -0.07097700000000        0.37033000000000
N            1.48315100000000        0.39656200000000       -0.28140800000000
C           -0.68339100000000        1.11036100000000        0.61331200000000
H            0.25735600000000       -2.01465700000000       -0.61830800000000
H           -1.33763300000000       -1.52648100000000        0.05830500000000
H           -0.72946700000000       -0.75659300000000       -1.45985600000000
H            0.52540900000000       -0.50701900000000        1.35852800000000
H            2.15005900000000       -0.40600300000000       -0.35564300000000
H            1.26116700000000        0.70892100000000       -1.25530900000000
H           -0.17302300000000        1.87828600000000        1.23273700000000
H           -0.98793000000000        1.57256300000000       -0.35025500000000
H           -1.59254300000000        0.77159000000000        1.15454800000000
13
 energy: -13.922105474352 gnorm: 0.015197745208 xtb: 6.6.0 (2ccbbd7)
C           -0.44517339852080       -1.16735074474324       -0.45956786690514
C            0.25619187485079       -0.07802710208050        0.35960752717768
N            1.48461050755109        0.40577589587761       -0.26251234377901
C           -0.67500315985483        1.10504929564999        0.60558179008400
H            0.22476030798656       -2.01579170246253       -0.62373231626264
H           -1.34003943042297       -1.53455020495021        0.04732248553793
H           -0.74223345079849       -0.77464530559032       -1.43516961084151
H            0.54293060306692       -0.50246397588132        1.33425919479686
H            2.14380459851514       -0.37142360263257       -0.35671971582046
H            1.27232840180596        0.72569836583674       -1.21170831062373
H           -0.17116935009878        1.86537687470529        1.20440528807372
H           -0.97906491699067        1.56117635713452       -0.33869609494352
H           -1.57194258708992        0.78117384913654        1.13693097350582
13
 energy: -13.922415368399 gnorm: 0.002783478494 xtb: 6.6.0 (2ccbbd7)
C           -0.44881972511975       -1.16868115736483       -0.46023308058559
C            0.25443241094643       -0.08467429652879        0.36348724602840
N            1.48021430618025        0.40105590633429       -0.25808745729547
C           -0.67550226884959        1.10033714053984        0.60046812370965
H            0.21523422519585       -2.01566912561682       -0.62411538433087
H           -1.33601892528360       -1.52427651905670        0.05498489948050
H           -0.74875981792978       -0.77255385672856       -1.42918004481091
H            0.54461523133477       -0.50679207694546        1.33377971905210
H            2.14339368148632       -0.36003689826747       -0.36301143725371
H            1.27557447901367        0.74911291853127       -1.19097682498623
H           -0.16372461587351        1.85612728923109        1.18766986376238
H           -0.97287438383015        1.54373193963377       -0.34663154520458
H           -1.56776459727093        0.78231673623837        1.13184692243430
13
 energy: -13.922457266223 gnorm: 0.001737594601 xtb: 6.6.0 (2ccbbd7)
C           -0.45129396371413       -1.17271884830497       -0.45936065281288
C            0.25454533296767       -0.08750649683886        0.36314534905425
N            1.48111562005503        0.39966021016174       -0.25448088269091
C           -0.67434976775951        1.10004590347931        0.59859747008030
H            0.21150552437603       -2.02056220950068       -0.62453694421756
H           -1.33909799062350       -1.52659619487406        0.05733372255058
H           -0.75084680622333       -0.77431580246338       -1.42754769067738
H            0.54299876270254       -0.51039935573446        1.33289452250230
H            2.14492974091630       -0.35876080087644       -0.36871102230686
H            1.27865064941378        0.76979653536307       -1.17924132712982
H           -0.15954542963414        1.85877419523765        1.18009425224443
H           -0.97270128054350        1.53702412865087       -0.35172360097214
H           -1.56591039193323        0.78555673570022        1.13353780437569
13
 energy: -13.922479195899 gnorm: 0.001640351848 xtb: 6.6.0 (2ccbbd7)
C           -0.45192382646614       -1.17535932891858       -0.45968178945822
C            0.25593838752691       -0.09017476368290        0.36450208281299
N            1.48350330777991        0.39500367561717       -0.24821851179183
C           -0.67331214998250        1.09954519029347        0.59546332269204
H            0.20983081308969       -2.02462023448173       -0.62382453601153
H           -1.34089712753066       -1.52763451408649        0.05803738640445
H           -0.75099622684043       -0.77755621437442       -1.42889776628761
H            0.54041804433623       -0.51393224057284        1.33521853859490
H            2.14151514702562       -0.36523705592863       -0.38197205760616
H            1.28117702966099        0.79756106512133       -1.15922504059602
H           -0.15465749275394        1.86426199152477        1.16701279091982
H           -0.97858712142020        1.52781473495712       -0.35779781539050
H           -1.56200878442549        0.79032569453173        1.13938439571767
13
 energy: -13.922487419718 gnorm: 0.000784716877 xtb: 6.6.0 (2ccbbd7)
C           -0.45068445592272       -1.17531264120195       -0.45981831448259
C            0.25559756041910       -0.08961026991621        0.36433999012393
N            1.48441408689658        0.39416636174040       -0.24644137626228
C           -0.67308310549947        1.09972024568741        0.59511672049048
H            0.21148630084842       -2.02466381442345       -0.62201225661230
H           -1.34063652822178       -1.52729129143005        0.05602683550359
H           -0.74768683443648       -0.77800548472511       -1.42969715856120
H            0.53715152128986       -0.51364652327572        1.33615534892960
H            2.13638808348055       -0.36978854170260       -0.38817910701846
H            1.28225720968332        0.80191579222592       -1.15383223320118
H           -0.15344880584447        1.86634171381729        1.16301162778433
H           -0.98245960693350        1.52532573811480       -0.35772730841448
H           -1.55929542575941        0.79084671508927        1.14305823172055
13
 energy: -13.922490449137 gnorm: 0.000491592932 xtb: 6.6.0 (2ccbbd7)
C           -0.44964267164050       -1.17469619464659       -0.45996564833535
C            0.25524645520532       -0.08981681422396        0.36546413124515
N            1.48566093852287        0.39285001422450       -0.24389673020856
C           -0.67325673579680        1.09932151794097        0.59448463323780
H            0.21257108768192       -2.02442030863490       -0.61949749022704
H           -1.34082734805445       -1.52611622112067        0.05352979401841
H           -0.74404580975731       -0.77879956633420       -1.43114200590514
H            0.53562230720541       -0.51389070386701        1.33805992568406
H            2.13125952490781       -0.37509825576885       -0.39555215587137
H            1.28367047605835        0.80862073875054       -1.14814743184455
H           -0.15215033769876        1.86817557686015        1.15763418075886
H           -0.98709521556051        1.52186525748258       -0.35805393603218
H           -1.55701267107333        0.79200295933746        1.14708373347991
