23
 energy: -27.392952991051 gnorm: 0.162481478159 xtb: 6.6.0 (2ccbbd7)
C            1.62691400000000       -1.11575600000000        0.96648600000000
C            1.37622200000000       -0.33368400000000       -0.33645500000000
C            1.88515200000000        1.11208100000000       -0.23808600000000
N           -0.01820100000000       -0.46138900000000       -0.84819000000000
C           -1.09500200000000        0.40363000000000       -0.28593200000000
C           -1.24821000000000        0.25473700000000        1.23830800000000
C           -2.43403100000000        0.02293500000000       -0.94670600000000
O           -0.84939000000000        1.74638100000000       -0.59247600000000
H            2.71850800000000       -1.27917700000000        1.09471800000000
H            1.27654800000000       -0.56962500000000        1.86192200000000
H            1.13893600000000       -2.11235600000000        0.93020300000000
H            2.03508700000000       -0.82480800000000       -1.09051500000000
H            2.98036200000000        1.11111200000000       -0.05112700000000
H            1.40141000000000        1.65908200000000        0.59626300000000
H            1.70389600000000        1.64825200000000       -1.19354100000000
H            0.02342600000000       -0.27240100000000       -1.87842700000000
H           -0.30827000000000       -1.46429500000000       -0.76166900000000
H           -1.23706200000000       -0.81638300000000        1.53228100000000
H           -2.20771600000000        0.69875600000000        1.58105800000000
H           -0.44981600000000        0.80468700000000        1.77321300000000
H           -3.24862200000000        0.69474400000000       -0.59926400000000
H           -2.70938600000000       -1.02542700000000       -0.70083800000000
H           -2.36075300000000        0.11890400000000       -2.05122400000000
23
 energy: -27.414677388688 gnorm: 0.113574148588 xtb: 6.6.0 (2ccbbd7)
C            1.62352667270786       -1.11486549103982        0.96255445247202
C            1.39746072353351       -0.34145639014930       -0.33924863094968
C            1.88292271143216        1.10287169796049       -0.23826933975630
N           -0.01666459360846       -0.44429786041842       -0.82434958155162
C           -1.11845147958118        0.47784428163588       -0.27095353008232
C           -1.24097633207263        0.24673061064844        1.24678171950150
C           -2.42318362921368       -0.00192645483889       -0.95346288998506
O           -0.80782301440034        1.73994009319848       -0.61299449045928
H            2.69753934885844       -1.27628057020456        1.08928647841382
H            1.26836451591434       -0.57512426800163        1.83993399805391
H            1.14203959448012       -2.09689358785676        0.93316681510695
H            2.01781219191253       -0.83753888290525       -1.10900136302415
H            2.96228232760255        1.10163429929265       -0.05242659505465
H            1.38577411382082        1.64701176908817        0.56410703038925
H            1.68607240912868        1.64196948413496       -1.16594970618601
H            0.00947236266065       -0.23561883046284       -1.83799593884045
H           -0.31309955470175       -1.43484895239998       -0.74203500137357
H           -1.23785485944577       -0.81305405957362        1.53591137721453
H           -2.18705472726130        0.68780413536690        1.56597603993082
H           -0.45238678151172        0.78685066354477        1.77113377668473
H           -3.21616855466676        0.66747776396190       -0.61806202189319
H           -2.70708161599129       -1.03509792416287       -0.70380249539156
H           -2.35251982959677        0.10686847318131       -2.04029810321968
23
 energy: -27.429306844807 gnorm: 0.067517149603 xtb: 6.6.0 (2ccbbd7)
C            1.63177495695199       -1.11895046415873        0.95809136513969
C            1.43229767868116       -0.35837204986127       -0.34407311640281
C            1.89257523121070        1.08560997570169       -0.24170556804103
N            0.00522358924335       -0.44799596129456       -0.81445502147466
C           -1.15281444284503        0.58380883568156       -0.25908856211532
C           -1.25054695169739        0.25999688460931        1.25592088897090
C           -2.42456364215063       -0.01164818041355       -0.95817841273987
O           -0.83263249944072        1.72104159806193       -0.60339791386325
H            2.68837043262648       -1.27707846376570        1.09529376877720
H            1.25950144919672       -0.57506786291070        1.80805738233637
H            1.14976236168178       -2.08473879943060        0.93040199613602
H            2.01626690798556       -0.85694723469070       -1.12313739395740
H            2.95445313887124        1.09484114082144       -0.05039184705270
H            1.37216783388556        1.61697884895659        0.53327098884193
H            1.67862437662753        1.62156411544433       -1.14847306055316
H            0.00798792045179       -0.20112893037319       -1.80261167241740
H           -0.30364043172864       -1.41748228027409       -0.73137927175882
H           -1.24007271050652       -0.79370885601534        1.50265233760316
H           -2.18497412058644        0.68229034254571        1.57664664918433
H           -0.46281582721035        0.77640878787762        1.77427859636918
H           -3.21892455633548        0.63734457265465       -0.63680750869248
H           -2.67412829222397       -1.03156584882218       -0.69267531403180
H           -2.34389040268867        0.09479982965578       -2.02823731025807
23
 energy: -27.435584363939 gnorm: 0.057647372921 xtb: 6.6.0 (2ccbbd7)
C            1.64622985997140       -1.12861335458586        0.95052588996253
C            1.44736635313281       -0.37559910035816       -0.35484144124768
C            1.89323606849091        1.07341488854550       -0.24728051750887
N            0.01838624653109       -0.45838196831321       -0.80961851280473
C           -1.18067038818527        0.64210018793994       -0.24603028165429
C           -1.26594004597877        0.28298005530000        1.26817734532297
C           -2.43013591166821       -0.00603069318774       -0.96004621230304
O           -0.82766627539295        1.75712203929566       -0.60812196456910
H            2.70490288626846       -1.28001747672896        1.10685185347837
H            1.25249203888169       -0.57362775198612        1.78850937057936
H            1.16413645456967       -2.09731073328475        0.91977353685147
H            2.03397733999571       -0.87106347420550       -1.13429944239140
H            2.95498933438736        1.10285798088268       -0.04486575411011
H            1.35462915784840        1.58824205910367        0.53322794065819
H            1.67808920377272        1.60979419911143       -1.15886812004701
H            0.00723965345264       -0.19239841408729       -1.79116114437185
H           -0.30268473440185       -1.41910873714379       -0.72434941950615
H           -1.24928094807910       -0.78282907258315        1.46865383381582
H           -2.20394823853454        0.68857838874458        1.61392483831136
H           -0.46707844031037        0.77754903195108        1.79952056014543
H           -3.26097388801293        0.61572919012122       -0.65764292536699
H           -2.63590106911993       -1.03291086437962       -0.67844001136988
H           -2.33139265761892        0.07952361984839       -2.03359742187440
23
 energy: -27.444888333583 gnorm: 0.036836783202 xtb: 6.6.0 (2ccbbd7)
C            1.67169925322958       -1.14620738658114        0.93838837169293
C            1.47585288239980       -0.40609209834332       -0.37638363172868
C            1.89590925712146        1.05451069919004       -0.25761631367241
N            0.06162336120726       -0.49990341009476       -0.81228606585021
C           -1.25589337322730        0.72107175705952       -0.21609474686587
C           -1.29916458100486        0.32869943143747        1.28489863384088
C           -2.44922593089879        0.02053156805667       -0.96078810499945
O           -0.84880101782640        1.80347383278848       -0.60200655435484
H            2.73425919413820       -1.28033435105461        1.12958068706887
H            1.24345452611545       -0.58162582458914        1.76241962980290
H            1.20052779541503       -2.12733111763729        0.90521642732027
H            2.08481541174916       -0.89102924326222       -1.15047748792688
H            2.95859846055848        1.12008106887325       -0.03535091134186
H            1.33580428637672        1.54789997908888        0.53262582221903
H            1.68795697379586        1.59423564694534       -1.17828506738812
H            0.01485938709048       -0.19394129822018       -1.78206557460658
H           -0.27871593264456       -1.44813555737500       -0.72692895737812
H           -1.26528139606392       -0.75305472306039        1.41334391783934
H           -2.24198577885973        0.70100892374446        1.68247503018391
H           -0.48242301399644        0.79163924083258        1.83310504884072
H           -3.34340959903877        0.58704030550285       -0.68940419595634
H           -2.57940518255294       -1.01717388827062       -0.65376418012604
H           -2.32105298308377        0.07463644496914       -2.04059977661345
23
 energy: -27.450338933454 gnorm: 0.027007456490 xtb: 6.6.0 (2ccbbd7)
C            1.70214698211553       -1.16252965641147        0.93125869245676
C            1.50596616416993       -0.43235574606848       -0.39154837023755
C            1.90261537200254        1.03701208424164       -0.26627070759804
N            0.11293752300626       -0.54018386239856       -0.82484605388527
C           -1.34166190865119        0.78147246535609       -0.18790408969415
C           -1.33983744766091        0.36340741597551        1.29181854667396
C           -2.47189970449851        0.04429038887716       -0.95377631534632
O           -0.89891076390400        1.83673221035610       -0.57981476749914
H            2.76530052580662       -1.27696639765483        1.14704843228098
H            1.24521092966002       -0.60013947092557        1.74485544606293
H            1.24795424905395       -2.15477218206021        0.89406443536618
H            2.15075361130355       -0.90480251970274       -1.15169549037916
H            2.96352028084006        1.12385641549805       -0.03141790204835
H            1.32862794040129        1.51819589993056        0.52482276870184
H            1.70029473014853        1.57330617238227       -1.19385895641360
H            0.03194169719262       -0.20403617537010       -1.78078329382149
H           -0.23628989810929       -1.48335632987170       -0.74658476781478
H           -1.28746147819675       -0.71709757338681        1.39125037357416
H           -2.28046615774539        0.70983137948496        1.72921758605823
H           -0.51645223481629        0.82096331965900        1.83540462745816
H           -3.40261824855610        0.56600181576042       -0.70525787461946
H           -2.55934916208062       -0.99491325970885       -0.64429378995412
H           -2.32232100148184        0.09608360603757       -2.03168652932177
23
 energy: -27.453296488924 gnorm: 0.014748107887 xtb: 6.6.0 (2ccbbd7)
C            1.73095135428324       -1.17654769468749        0.92840128146652
C            1.53443537294228       -0.44987838222450       -0.39910124710907
C            1.91462015916393        1.02461562954465       -0.27286136693096
N            0.15261242174438       -0.56806913312193       -0.83393580012937
C           -1.42056803794207        0.81102620248818       -0.16106264177659
C           -1.38155639994963        0.38753892731118        1.29875114866766
C           -2.49643338395400        0.06368673996113       -0.94582741647434
O           -0.94768475117783        1.85746369202877       -0.56177771953370
H            2.79296578869882       -1.27014315981071        1.15204497015373
H            1.25576575650075       -0.62645559336777        1.73789108737847
H            1.29855983179400       -2.17829196782417        0.88615488060164
H            2.21120282779323       -0.91359912848910       -1.14542612420796
H            2.97273672506862        1.12127298996756       -0.03346625066391
H            1.33146870628178        1.50163542136056        0.51164064345534
H            1.71260066266280        1.55372882214170       -1.20358508392432
H            0.05187697314412       -0.21794104418251       -1.77887710071930
H           -0.18856232580115       -1.51714599330005       -0.77329093681325
H           -1.31276755760772       -0.68945573165491        1.39252204766857
H           -2.31712605305741        0.71768263962378        1.75739650074013
H           -0.55665392438947        0.85887856629676        1.82522155107696
H           -3.44507439589617        0.55428328057170       -0.71443385596651
H           -2.56335204756310       -0.97659426746247       -0.64750842230723
H           -2.33001570273938        0.13230918482965       -2.01886814465250
23
 energy: -27.455221384288 gnorm: 0.022817864811 xtb: 6.6.0 (2ccbbd7)
C            1.76124337085655       -1.19271433414339        0.92795381878514
C            1.57625145143898       -0.47068279190628       -0.40626431605784
C            1.94268356144342        1.00581684530450       -0.28495679421537
N            0.19764348693300       -0.58354907573065       -0.84243226532511
C           -1.51322859506315        0.86072393500857       -0.12954922233175
C           -1.42941336855288        0.41665257351290        1.31214912666405
C           -2.52809725342969        0.07700930414778       -0.93948441254621
O           -1.03611735646393        1.88696660263016       -0.52506266429779
H            2.81883586080490       -1.26510818733083        1.16659741698818
H            1.26012398733606       -0.65452664378332        1.72740650073563
H            1.35132601437166       -2.20065129090406        0.87998788679704
H            2.26837796754639       -0.93590588749640       -1.14083193369857
H            2.99524795326704        1.10968717344614       -0.03911306274336
H            1.34565807594072        1.48201230402307        0.48453489991336
H            1.74126856651552        1.52253126395506       -1.21846248000770
H            0.08063205720510       -0.21588873607686       -1.77548485755302
H           -0.12840563908686       -1.54203847868820       -0.81203883298590
H           -1.33383461753773       -0.65941688449940        1.39649785607143
H           -2.35866497530650        0.72294534490778        1.79648255592175
H           -0.60388671200482        0.90754303946220        1.81590033791229
H           -3.50438827419848        0.52496919103442       -0.73142667646335
H           -2.56252489030713       -0.97029498375669       -0.65759777517809
H           -2.34072867170816        0.17391971688353       -2.00480310638481
23
 energy: -27.456493469478 gnorm: 0.014651861259 xtb: 6.6.0 (2ccbbd7)
C            1.79325080351051       -1.20666193483146        0.92558936991229
C            1.61467408830953       -0.48937133747055       -0.41273436127537
C            1.97271481727264        0.98912938838753       -0.29642689011868
N            0.23356374705037       -0.60264390566918       -0.84623728177327
C           -1.60124945483115        0.89637356675941       -0.09946729155198
C           -1.48024090695921        0.44436906069572        1.33018891452493
C           -2.56633653720341        0.09235572594015       -0.93428521884673
O           -1.09204926170145        1.91323780975469       -0.50908311356247
H            2.84880150162044       -1.24915941514511        1.18547223059211
H            1.25866044881660       -0.68065479134935        1.71337930582252
H            1.41127111154789       -2.22470549232066        0.86768811574079
H            2.31247818424851       -0.95752040853161       -1.14001078666476
H            3.02098149352312        1.10598889285316       -0.03753816498181
H            1.35776507764437        1.46345322505467        0.45999117576337
H            1.77884100199756        1.49541086021127       -1.23607850518630
H            0.10999849451737       -0.21372027178572       -1.77135469194708
H           -0.07069136006393       -1.57308069824050       -0.85458557387706
H           -1.35720049830069       -0.63107532436297        1.40556297689942
H           -2.40267606045900        0.72489997238514        1.84481237497228
H           -0.65092195794857        0.95039352392274        1.81386993909139
H           -3.56520270766918        0.50006163886900       -0.74713234948168
H           -2.57164503497179       -0.96082266139483       -0.66842082172938
H           -2.35478498995049        0.21374257626851       -1.99319735232255
23
 energy: -27.457315101587 gnorm: 0.012218890796 xtb: 6.6.0 (2ccbbd7)
C            1.82122847275472       -1.21665242330835        0.92262160340106
C            1.65340076311331       -0.50643244647678       -0.41999767063244
C            2.00553929678738        0.97348372049349       -0.30904285246337
N            0.26696153920642       -0.61857983746585       -0.85035525762693
C           -1.66951945185142        0.92616655128873       -0.07824806835842
C           -1.52993413088735        0.46812490735025        1.34658371423687
C           -2.60475371928083        0.10412750993258       -0.92634290623947
O           -1.15438059381686        1.93631420351280       -0.49103593019444
H            2.87239699342758       -1.23301603181770        1.20646912229514
H            1.25648065606729       -0.70041934121233        1.69648635292013
H            1.46507886699528       -2.24377715408013        0.85808737677305
H            2.34702981467101       -0.98031489507352       -1.14398875652959
H            3.04842143338866        1.09943338366763       -0.02921199649974
H            1.37091835371579        1.44839430368941        0.43319676812442
H            1.82947564302874        1.47146460492796       -1.25789727684887
H            0.14616784664509       -0.20634886116504       -1.76803197398345
H           -0.01405037967496       -1.59711021491562       -0.89899390181184
H           -1.38421153520960       -0.60612443604549        1.40884224773406
H           -2.44745914997526        0.72264566194292        1.88063220581195
H           -0.70181750546767        0.98597450825734        1.82074357297169
H           -3.61461656386015        0.47893966214570       -0.75272711429086
H           -2.58373845103308       -0.95013291914225       -0.66843238445303
H           -2.37861619874405        0.24383954349430       -1.97935487433594
23
 energy: -27.457963712286 gnorm: 0.008600275600 xtb: 6.6.0 (2ccbbd7)
C            1.85136234175985       -1.22520780314502        0.91889542163183
C            1.69043056961619       -0.52224850931380       -0.42611589339754
C            2.04282220580093        0.95697877459837       -0.32156343885402
N            0.29868571613271       -0.63421660714834       -0.85563879222768
C           -1.72970459153849        0.95489145607046       -0.06160787840108
C           -1.58352099136206        0.49228766800685        1.36345047536540
C           -2.64821956090408        0.11685559379032       -0.91542426766875
O           -1.21556440843184        1.96356838423630       -0.47393370878177
H            2.89527310619905       -1.21719140474613        1.22458361037066
H            1.25923119967896       -0.72047987537604        1.67740058043154
H            1.52106989910111       -2.26036565433159        0.85074551322333
H            2.37743727286958       -1.00119186323310       -1.14928243773668
H            3.07804978444655        1.08376443958685       -0.01485234314115
H            1.39112371523746        1.43857357672424        0.40178048878908
H            1.89678639294769        1.44909372112964       -1.28059716930664
H            0.18573715418353       -0.19735609793618       -1.76475996024878
H            0.04173366835675       -1.61622494535935       -0.94724891934398
H           -1.41419866838746       -0.57990010586369        1.40798107949087
H           -2.50009172978373        0.71778895958967        1.90590407523445
H           -0.76234275373116        1.01998658817770        1.83850710704894
H           -3.67441037393101        0.45310856871169       -0.75221487264916
H           -2.58907863827393       -0.93934758922742       -0.66209002780823
H           -2.41260930998654        0.26683272505865       -1.96391664202069
23
 energy: -27.458312407209 gnorm: 0.009224201204 xtb: 6.6.0 (2ccbbd7)
C            1.87885109014152       -1.23129696268492        0.91610207279245
C            1.72162117987288       -0.53695003506359       -0.43288450668791
C            2.07405618013576        0.94269817401608       -0.33121829331432
N            0.32789066580829       -0.65438186681353       -0.86432561491420
C           -1.77574770671193        0.97467188084559       -0.05125490793550
C           -1.62892277932005        0.51025832928201        1.37571836272437
C           -2.68710468277358        0.12918043980518       -0.90495561970913
O           -1.26440479119917        1.98366388808963       -0.46291982881976
H            2.91719702879969       -1.19476197181525        1.24365868348721
H            1.25523458429094       -0.73765343679377        1.65927482725412
H            1.57563278042615       -2.27577169381803        0.84409887417757
H            2.40943960363437       -1.01697912299200       -1.15386190572087
H            3.10150108271743        1.06944850202650        0.00560003793808
H            1.40233705124835        1.43308618496057        0.37013569422467
H            1.96105449105165        1.42879064503784       -1.29968545592870
H            0.21831110326450       -0.19401105618660       -1.76416696243272
H            0.08983611889104       -1.63540444131497       -0.99084858633381
H           -1.43241033185719       -0.55828531448485        1.40575625630151
H           -2.55315451898798        0.70432619967669        1.91705690534995
H           -0.82017570672175        1.05074146374176        1.85844128315705
H           -3.70932635657690        0.44371414052455       -0.73626409351564
H           -2.60640753661737       -0.92078088596418       -0.65102647787418
H           -2.45530654951659        0.28569693992535       -1.95242874422030
23
 energy: -27.458588329886 gnorm: 0.007854430588 xtb: 6.6.0 (2ccbbd7)
C            1.90328267207420       -1.24043707200871        0.91299876445113
C            1.75081428485888       -0.55146267052825       -0.43945939187937
C            2.10442843350198        0.92811661286130       -0.34063901496796
N            0.35863119520552       -0.67270916919865       -0.87328239049476
C           -1.82191772359132        1.00225273670652       -0.03819332686686
C           -1.67221599907908        0.53241541608714        1.38773057838928
C           -2.72195384286333        0.14139523063563       -0.89422982793056
O           -1.31013908138809        2.00986651323674       -0.45065279666834
H            2.93422128547911       -1.18310371078060        1.25314708968864
H            1.26135770927244       -0.75835014280229        1.64444716368414
H            1.62133071034336       -2.29028718250930        0.84132610916063
H            2.44339432658556       -1.03215629178083       -1.15706202935245
H            3.12322186759152        1.05149475046773        0.02301614103974
H            1.41655882741296        1.42702037199783        0.33872275461106
H            2.02239707476515        1.40812631212001       -1.31588496313603
H            0.24484934407723       -0.18897590156457       -1.76139011121346
H            0.13425009189069       -1.65104358109034       -1.03081581142354
H           -1.44326176212625       -0.53022516988983        1.40675674912313
H           -2.60892469476229        0.69181279765753        1.92153935613003
H           -0.88172771867561        1.09099317510148        1.88113036551906
H           -3.76220397627488        0.41764964455080       -0.71773697156290
H           -2.60134378287729       -0.91131453950637       -0.64916044294187
H           -2.49504724142040        0.30892187023710       -1.94230599335877
23
 energy: -27.458825505757 gnorm: 0.005408374264 xtb: 6.6.0 (2ccbbd7)
C            1.92101599973174       -1.24774934225532        0.91100988332377
C            1.77108521116656       -0.56203909889927       -0.44420426211836
C            2.12165641822067        0.91927821991867       -0.34597404822513
N            0.38338906092924       -0.69158217901197       -0.88358172479137
C           -1.84492025786032        1.01527063829572       -0.03318367970743
C           -1.70039727386864        0.54605200581370        1.39265040662947
C           -2.74440090095192        0.15080339761185       -0.88524788494201
O           -1.33467435562561        2.02422955504363       -0.44609721396935
H            2.94647272937132       -1.17396422043119        1.26016968074448
H            1.26557473350696       -0.77401654209841        1.63400854238793
H            1.65457603140477       -2.30064323872272        0.83992345380962
H            2.47142932165497       -1.04053643195455       -1.15749861208172
H            3.13266992137719        1.04256045205789        0.03615210898346
H            1.42308393832300        1.42181281419086        0.31714700275590
H            2.06025443073755        1.39503209293589       -1.32321767301683
H            0.26165944898007       -0.19124780056323       -1.76015447021968
H            0.16643101389463       -1.66631338075898       -1.05924743202652
H           -1.44308926196683       -0.50861680731359        1.41059464273417
H           -2.65156235819254        0.67829232533031        1.90725422688598
H           -0.93456104852836        1.12491476254514        1.90324322049480
H           -3.78415979860537        0.41014958864177       -0.68856380470477
H           -2.60335921929336       -0.90038173414468       -0.64888042256482
H           -2.53817178440566        0.32869492376857       -1.93629994038164
23
 energy: -27.459039670706 gnorm: 0.007667172332 xtb: 6.6.0 (2ccbbd7)
C            1.94460337326259       -1.25996686388894        0.90917026756184
C            1.80180533661716       -0.58091582765679       -0.45224259476751
C            2.14143563890692        0.90407547181234       -0.35453961711223
N            0.42158546928137       -0.72118489645461       -0.90037433358435
C           -1.87912506388153        1.03727272672037       -0.02447773016359
C           -1.73604184389982        0.56886690943911        1.39998766989557
C           -2.77353902314655        0.16692358888486       -0.87300574003818
O           -1.36712969457563        2.04455413020759       -0.44003780273359
H            2.96368814874365       -1.15681208811515        1.27954881990791
H            1.25887555610717       -0.79780638948587        1.61819526601966
H            1.70541764192895       -2.32017094320018        0.83412247158450
H            2.51770006962528       -1.05541411615599       -1.15520809532082
H            3.14050789152451        1.03460306177207        0.05776710170699
H            1.41841260969649        1.40862483690479        0.28251516080608
H            2.10733183257157        1.36815588459433       -1.33746323660390
H            0.28188554097201       -0.19290777728663       -1.75764223042680
H            0.21351780394685       -1.69366434948740       -1.10236918367532
H           -1.42403933872230       -0.47419638012955        1.41781314504444
H           -2.70901991362177        0.65347782013920        1.89387073555636
H           -1.00988656476813        1.18271692446870        1.93154422172440
H           -3.81312028907007        0.40076573721176       -0.64097831549306
H           -2.60256643245616       -0.88418667740009       -0.65811547183332
H           -2.60229674904249        0.36718921710618       -1.92807850805513
23
 energy: -27.459153264359 gnorm: 0.007523955920 xtb: 6.6.0 (2ccbbd7)
C            1.95033602309383       -1.26506393763370        0.90906715462159
C            1.81058811125848       -0.58658264341775       -0.45338793499640
C            2.13851248798396        0.90156625422695       -0.35490625787050
N            0.43573726812412       -0.73736677528713       -0.90880830202491
C           -1.87652268895378        1.03901070206578       -0.02704259812174
C           -1.74186633393177        0.57681913833520        1.39943399581717
C           -2.77791759002774        0.17245349994749       -0.87124253669628
O           -1.36408866832723        2.04605497088997       -0.44485983112153
H            2.96454132475474       -1.16349156133565        1.27697065976787
H            1.27086934758786       -0.80514766505809        1.61699668686029
H            1.71285277489374       -2.32251778087671        0.83690776746031
H            2.53482017635910       -1.05689863787154       -1.15019814046005
H            3.13084214055090        1.04260444023389        0.06808619701380
H            1.40404155101748        1.40010420749782        0.27264404595838
H            2.11118578459440        1.36103852252023       -1.33831786305839
H            0.28402294845545       -0.19983454140034       -1.75457236598988
H            0.22921424941665       -1.70856574005887       -1.11359243571868
H           -1.40747187715876       -0.45509178926706        1.42823296030145
H           -2.72194120499597        0.64366333052311        1.87586223204216
H           -1.04099672506893        1.20593688309532        1.94490355926877
H           -3.80985680300707        0.40228304561021       -0.60738352276021
H           -2.59926918106399       -0.87873523469539       -0.67550358359993
H           -2.63763111555542        0.38776131195640       -1.92928788669331
23
 energy: -27.459243791489 gnorm: 0.005215935301 xtb: 6.6.0 (2ccbbd7)